[
    {
        "name": "Hydrogen",
        "symbol": "H",
        "atomicNumber": 1,
        "atomicMass": "1.008",
        "groupBlock": "Nonmetal",
        "period": 1,
        "standardState": "Gas",
        "density": "0.08988",
        "meltingPoint": "-259.16",
        "electronicConfiguration": "1s¹",
        "summary": "The lightest and most abundant element in the universe."
    },
    {
        "name": "Helium",
        "symbol": "He",
        "atomicNumber": 2,
        "atomicMass": "4.0026",
        "groupBlock": "Noble gas",
        "period": 1,
        "standardState": "Gas",
        "density": "0.1786",
        "meltingPoint": "-272.20",
        "electronicConfiguration": "1s²",
        "summary": "A noble gas used in cryogenics and pressurizing rockets."
    },
    {
        "name": "Lithium",
        "symbol": "Li",
        "atomicNumber": 3,
        "atomicMass": "6.94",
        "groupBlock": "Alkali metal",
        "period": 2,
        "standardState": "Solid",
        "density": "0.534",
        "meltingPoint": "180.54",
        "electronicConfiguration": "[He] 2s¹",
        "summary": "A soft, silvery metal used in batteries."
    },
    {
        "name": "Beryllium",
        "symbol": "Be",
        "atomicNumber": 4,
        "atomicMass": "9.0122",
        "groupBlock": "Alkaline earth metal",
        "period": 2,
        "standardState": "Solid",
        "density": "1.85",
        "meltingPoint": "1287",
        "electronicConfiguration": "[He] 2s²",
        "summary": "A hard, gray metal used as an aerospace material."
    },
    {
        "name": "Boron",
        "symbol": "B",
        "atomicNumber": 5,
        "atomicMass": "10.81",
        "groupBlock": "Metalloid",
        "period": 2,
        "standardState": "Solid",
        "density": "2.34",
        "meltingPoint": "2076",
        "electronicConfiguration": "[He] 2s² 2p¹",
        "summary": "A metalloid essential for plant growth."
    },
    {
        "name": "Carbon",
        "symbol": "C",
        "atomicNumber": 6,
        "atomicMass": "12.011",
        "groupBlock": "Nonmetal",
        "period": 2,
        "standardState": "Solid",
        "density": "2.267",
        "meltingPoint": "3550",
        "electronicConfiguration": "[He] 2s² 2p²",
        "summary": "The basis of organic chemistry, found in all life forms."
    },
    {
        "name": "Nitrogen",
        "symbol": "N",
        "atomicNumber": 7,
        "atomicMass": "14.007",
        "groupBlock": "Nonmetal",
        "period": 2,
        "standardState": "Gas",
        "density": "1.2506",
        "meltingPoint": "-210.00",
        "electronicConfiguration": "[He] 2s² 2p³",
        "summary": "A colorless, odorless gas making up 78% of Earth's atmosphere."
    },
    {
        "name": "Oxygen",
        "symbol": "O",
        "atomicNumber": 8,
        "atomicMass": "15.999",
        "groupBlock": "Nonmetal",
        "period": 2,
        "standardState": "Gas",
        "density": "1.429",
        "meltingPoint": "-218.79",
        "electronicConfiguration": "[He] 2s² 2p⁴",
        "summary": "Essential for respiration in most living organisms."
    },
    {
        "name": "Fluorine",
        "symbol": "F",
        "atomicNumber": 9,
        "atomicMass": "18.998",
        "groupBlock": "Halogen",
        "period": 2,
        "standardState": "Gas",
        "density": "1.696",
        "meltingPoint": "-219.67",
        "electronicConfiguration": "[He] 2s² 2p⁵",
        "summary": "A highly reactive, poisonous gas."
    },
    {
        "name": "Neon",
        "symbol": "Ne",
        "atomicNumber": 10,
        "atomicMass": "20.180",
        "groupBlock": "Noble gas",
        "period": 2,
        "standardState": "Gas",
        "density": "0.9002",
        "meltingPoint": "-248.59",
        "electronicConfiguration": "[He] 2s² 2p⁶",
        "summary": "A noble gas used in neon signs and lighting."
    },
    {
        "name": "Sodium",
        "symbol": "Na",
        "atomicNumber": 11,
        "atomicMass": "22.990",
        "groupBlock": "Alkali metal",
        "period": 3,
        "standardState": "Solid",
        "density": "0.971",
        "meltingPoint": "97.72",
        "electronicConfiguration": "[Ne] 3s¹",
        "summary": "A soft, silvery-white, highly reactive metal."
    },
    {
        "name": "Magnesium",
        "symbol": "Mg",
        "atomicNumber": 12,
        "atomicMass": "24.305",
        "groupBlock": "Alkaline earth metal",
        "period": 3,
        "standardState": "Solid",
        "density": "1.738",
        "meltingPoint": "650",
        "electronicConfiguration": "[Ne] 3s²",
        "summary": "A shiny gray solid, essential for life."
    },
    {
        "name": "Aluminum",
        "symbol": "Al",
        "atomicNumber": 13,
        "atomicMass": "26.982",
        "groupBlock": "Post-transition metal",
        "period": 3,
        "standardState": "Solid",
        "density": "2.70",
        "meltingPoint": "660.32",
        "electronicConfiguration": "[Ne] 3s² 3p¹",
        "summary": "A lightweight, silvery-white metal."
    },
    {
        "name": "Silicon",
        "symbol": "Si",
        "atomicNumber": 14,
        "atomicMass": "28.085",
        "groupBlock": "Metalloid",
        "period": 3,
        "standardState": "Solid",
        "density": "2.3296",
        "meltingPoint": "1414",
        "electronicConfiguration": "[Ne] 3s² 3p²",
        "summary": "A hard, brittle crystalline solid, widely used in electronics."
    },
    {
        "name": "Phosphorus",
        "symbol": "P",
        "atomicNumber": 15,
        "atomicMass": "30.974",
        "groupBlock": "Nonmetal",
        "period": 3,
        "standardState": "Solid",
        "density": "1.82",
        "meltingPoint": "44.15",
        "electronicConfiguration": "[Ne] 3s² 3p³",
        "summary": "A reactive nonmetal essential for life."
    },
    {
        "name": "Sulfur",
        "symbol": "S",
        "atomicNumber": 16,
        "atomicMass": "32.06",
        "groupBlock": "Nonmetal",
        "period": 3,
        "standardState": "Solid",
        "density": "2.067",
        "meltingPoint": "115.21",
        "electronicConfiguration": "[Ne] 3s² 3p⁴",
        "summary": "A bright yellow crystalline solid, used in fertilizers."
    },
    {
        "name": "Chlorine",
        "symbol": "Cl",
        "atomicNumber": 17,
        "atomicMass": "35.45",
        "groupBlock": "Halogen",
        "period": 3,
        "standardState": "Gas",
        "density": "3.214",
        "meltingPoint": "-101.5",
        "electronicConfiguration": "[Ne] 3s² 3p⁵",
        "summary": "A yellow-green gas, used as a disinfectant."
    },
    {
        "name": "Argon",
        "symbol": "Ar",
        "atomicNumber": 18,
        "atomicMass": "39.948",
        "groupBlock": "Noble gas",
        "period": 3,
        "standardState": "Gas",
        "density": "1.784",
        "meltingPoint": "-189.34",
        "electronicConfiguration": "[Ne] 3s² 3p⁶",
        "summary": "A colorless, odorless noble gas."
    },
    {
        "name": "Potassium",
        "symbol": "K",
        "atomicNumber": 19,
        "atomicMass": "39.098",
        "groupBlock": "Alkali metal",
        "period": 4,
        "standardState": "Solid",
        "density": "0.862",
        "meltingPoint": "63.5",
        "electronicConfiguration": "[Ar] 4s¹",
        "summary": "A soft, silvery metal, highly reactive with water."
    },
    {
        "name": "Calcium",
        "symbol": "Ca",
        "atomicNumber": 20,
        "atomicMass": "40.078",
        "groupBlock": "Alkaline earth metal",
        "period": 4,
        "standardState": "Solid",
        "density": "1.54",
        "meltingPoint": "842",
        "electronicConfiguration": "[Ar] 4s²",
        "summary": "A soft gray metal, essential for living organisms."
    },
    {
        "name": "Scandium",
        "symbol": "Sc",
        "atomicNumber": 21,
        "atomicMass": "44.956",
        "groupBlock": "Transition metal",
        "period": 4,
        "standardState": "Solid",
        "density": "2.985",
        "meltingPoint": "1541",
        "electronicConfiguration": "[Ar] 3d¹ 4s²",
        "summary": "A soft, silvery transition metal."
    },
    {
        "name": "Titanium",
        "symbol": "Ti",
        "atomicNumber": 22,
        "atomicMass": "47.867",
        "groupBlock": "Transition metal",
        "period": 4,
        "standardState": "Solid",
        "density": "4.506",
        "meltingPoint": "1668",
        "electronicConfiguration": "[Ar] 3d² 4s²",
        "summary": "A strong, low-density, highly corrosion-resistant metal."
    },
    {
        "name": "Vanadium",
        "symbol": "V",
        "atomicNumber": 23,
        "atomicMass": "50.942",
        "groupBlock": "Transition metal",
        "period": 4,
        "standardState": "Solid",
        "density": "6.11",
        "meltingPoint": "1910",
        "electronicConfiguration": "[Ar] 3d³ 4s²",
        "summary": "A hard, silvery gray, ductile transition metal."
    },
    {
        "name": "Chromium",
        "symbol": "Cr",
        "atomicNumber": 24,
        "atomicMass": "51.996",
        "groupBlock": "Transition metal",
        "period": 4,
        "standardState": "Solid",
        "density": "7.15",
        "meltingPoint": "1907",
        "electronicConfiguration": "[Ar] 3d⁵ 4s¹",
        "summary": "A steely-grey, lustrous, hard and brittle metal."
    },
    {
        "name": "Manganese",
        "symbol": "Mn",
        "atomicNumber": 25,
        "atomicMass": "54.938",
        "groupBlock": "Transition metal",
        "period": 4,
        "standardState": "Solid",
        "density": "7.44",
        "meltingPoint": "1246",
        "electronicConfiguration": "[Ar] 3d⁵ 4s²",
        "summary": "A hard, brittle, silvery metal, used in steel."
    },
    {
        "name": "Iron",
        "symbol": "Fe",
        "atomicNumber": 26,
        "atomicMass": "55.845",
        "groupBlock": "Transition metal",
        "period": 4,
        "standardState": "Solid",
        "density": "7.874",
        "meltingPoint": "1538",
        "electronicConfiguration": "[Ar] 3d⁶ 4s²",
        "summary": "A metal in the first transition series, vital for life."
    },
    {
        "name": "Cobalt",
        "symbol": "Co",
        "atomicNumber": 27,
        "atomicMass": "58.933",
        "groupBlock": "Transition metal",
        "period": 4,
        "standardState": "Solid",
        "density": "8.86",
        "meltingPoint": "1495",
        "electronicConfiguration": "[Ar] 3d⁷ 4s²",
        "summary": "A hard, lustrous, gray metal."
    },
    {
        "name": "Nickel",
        "symbol": "Ni",
        "atomicNumber": 28,
        "atomicMass": "58.693",
        "groupBlock": "Transition metal",
        "period": 4,
        "standardState": "Solid",
        "density": "8.912",
        "meltingPoint": "1455",
        "electronicConfiguration": "[Ar] 3d⁸ 4s²",
        "summary": "A silvery-white lustrous metal with a slight golden tinge."
    },
    {
        "name": "Copper",
        "symbol": "Cu",
        "atomicNumber": 29,
        "atomicMass": "63.546",
        "groupBlock": "Transition metal",
        "period": 4,
        "standardState": "Solid",
        "density": "8.96",
        "meltingPoint": "1084.62",
        "electronicConfiguration": "[Ar] 3d¹⁰ 4s¹",
        "summary": "A reddish, extremely ductile metal, excellent conductor."
    },
    {
        "name": "Zinc",
        "symbol": "Zn",
        "atomicNumber": 30,
        "atomicMass": "65.38",
        "groupBlock": "Post-transition metal",
        "period": 4,
        "standardState": "Solid",
        "density": "7.134",
        "meltingPoint": "419.53",
        "electronicConfiguration": "[Ar] 3d¹⁰ 4s²",
        "summary": "A bluish-silver, lustrous metal."
    },
    {
        "name": "Gallium",
        "symbol": "Ga",
        "atomicNumber": 31,
        "atomicMass": "69.723",
        "groupBlock": "Post-transition metal",
        "period": 4,
        "standardState": "Solid",
        "density": "5.91",
        "meltingPoint": "29.76",
        "electronicConfiguration": "[Ar] 3d¹⁰ 4s² 4p¹",
        "summary": "A soft, silvery metal, melts in your hand."
    },
    {
        "name": "Germanium",
        "symbol": "Ge",
        "atomicNumber": 32,
        "atomicMass": "72.630",
        "groupBlock": "Metalloid",
        "period": 4,
        "standardState": "Solid",
        "density": "5.323",
        "meltingPoint": "938.25",
        "electronicConfiguration": "[Ar] 3d¹⁰ 4s² 4p²",
        "summary": "A lustrous, hard, grayish-white metalloid."
    },
    {
        "name": "Arsenic",
        "symbol": "As",
        "atomicNumber": 33,
        "atomicMass": "74.922",
        "groupBlock": "Metalloid",
        "period": 4,
        "standardState": "Solid",
        "density": "5.776",
        "meltingPoint": "817",
        "electronicConfiguration": "[Ar] 3d¹⁰ 4s² 4p³",
        "summary": "A metalloid, poisonous in many forms."
    },
    {
        "name": "Selenium",
        "symbol": "Se",
        "atomicNumber": 34,
        "atomicMass": "78.971",
        "groupBlock": "Nonmetal",
        "period": 4,
        "standardState": "Solid",
        "density": "4.809",
        "meltingPoint": "221",
        "electronicConfiguration": "[Ar] 3d¹⁰ 4s² 4p⁴",
        "summary": "A nonmetal, used in photocells."
    },
    {
        "name": "Bromine",
        "symbol": "Br",
        "atomicNumber": 35,
        "atomicMass": "79.904",
        "groupBlock": "Halogen",
        "period": 4,
        "standardState": "Liquid",
        "density": "3.1028",
        "meltingPoint": "-7.2",
        "electronicConfiguration": "[Ar] 3d¹⁰ 4s² 4p⁵",
        "summary": "A red-brown liquid at room temperature."
    },
    {
        "name": "Krypton",
        "symbol": "Kr",
        "atomicNumber": 36,
        "atomicMass": "83.798",
        "groupBlock": "Noble gas",
        "period": 4,
        "standardState": "Gas",
        "density": "3.749",
        "meltingPoint": "-157.36",
        "electronicConfiguration": "[Ar] 3d¹⁰ 4s² 4p⁶",
        "summary": "A colorless, odorless, tasteless noble gas."

    },
    {
        "name": "Rubidium",
        "symbol": "Rb",
        "atomicNumber": 37,
        "atomicMass": "85.468",
        "groupBlock": "Alkali metal",
        "period": 5,
        "standardState": "Solid",
        "density": "1.532",
        "meltingPoint": "39.31",
        "electronicConfiguration": "[Kr] 5s¹",
        "summary": "A soft, silvery-white metallic element."
    },
    {
        "name": "Strontium",
        "symbol": "Sr",
        "atomicNumber": 38,
        "atomicMass": "87.62",
        "groupBlock": "Alkaline earth metal",
        "period": 5,
        "standardState": "Solid",
        "density": "2.64",
        "meltingPoint": "777",
        "electronicConfiguration": "[Kr] 5s²",
        "summary": "A soft, silver-yellow metal."
    },
    {
        "name": "Yttrium",
        "symbol": "Y",
        "atomicNumber": 39,
        "atomicMass": "88.906",
        "groupBlock": "Transition metal",
        "period": 5,
        "standardState": "Solid",
        "density": "4.469",
        "meltingPoint": "1526",
        "electronicConfiguration": "[Kr] 4d¹ 5s²",
        "summary": "A silvery-metallic transition metal."
    },
    {
        "name": "Zirconium",
        "symbol": "Zr",
        "atomicNumber": 40,
        "atomicMass": "91.224",
        "groupBlock": "Transition metal",
        "period": 5,
        "standardState": "Solid",
        "density": "6.506",
        "meltingPoint": "1855",
        "electronicConfiguration": "[Kr] 4d² 5s²",
        "summary": "A strong, ductile, lustrous silver-gray metal."
    },
    {
        "name": "Niobium",
        "symbol": "Nb",
        "atomicNumber": 41,
        "atomicMass": "92.906",
        "groupBlock": "Transition metal",
        "period": 5,
        "standardState": "Solid",
        "density": "8.57",
        "meltingPoint": "2477",
        "electronicConfiguration": "[Kr] 4d⁴ 5s¹",
        "summary": "A soft, grey, ductile transition metal."
    },
    {
        "name": "Molybdenum",
        "symbol": "Mo",
        "atomicNumber": 42,
        "atomicMass": "95.95",
        "groupBlock": "Transition metal",
        "period": 5,
        "standardState": "Solid",
        "density": "10.28",
        "meltingPoint": "2623",
        "electronicConfiguration": "[Kr] 4d⁵ 5s¹",
        "summary": "A silvery metal with one of the highest melting points."
    },
    {
        "name": "Technetium",
        "symbol": "Tc",
        "atomicNumber": 43,
        "atomicMass": "98",
        "groupBlock": "Transition metal",
        "period": 5,
        "standardState": "Solid",
        "density": "11.5",
        "meltingPoint": "2157",
        "electronicConfiguration": "[Kr] 4d⁵ 5s²",
        "summary": "A radioactive, silvery metal."
    },
    {
        "name": "Ruthenium",
        "symbol": "Ru",
        "atomicNumber": 44,
        "atomicMass": "101.07",
        "groupBlock": "Transition metal",
        "period": 5,
        "standardState": "Solid",
        "density": "12.37",
        "meltingPoint": "2334",
        "electronicConfiguration": "[Kr] 4d⁷ 5s¹",
        "summary": "A rare transition metal of the platinum group."
    },
    {
        "name": "Rhodium",
        "symbol": "Rh",
        "atomicNumber": 45,
        "atomicMass": "102.91",
        "groupBlock": "Transition metal",
        "period": 5,
        "standardState": "Solid",
        "density": "12.41",
        "meltingPoint": "1964",
        "electronicConfiguration": "[Kr] 4d⁸ 5s¹",
        "summary": "A rare, silvery-white, hard, and chemically inert metal."
    },
    {
        "name": "Palladium",
        "symbol": "Pd",
        "atomicNumber": 46,
        "atomicMass": "106.42",
        "groupBlock": "Transition metal",
        "period": 5,
        "standardState": "Solid",
        "density": "12.02",
        "meltingPoint": "1554.9",
        "electronicConfiguration": "[Kr] 4d¹⁰",
        "summary": "A rare, precious metal, used in catalytic converters."
    },
    {
        "name": "Silver",
        "symbol": "Ag",
        "atomicNumber": 47,
        "atomicMass": "107.87",
        "groupBlock": "Transition metal",
        "period": 5,
        "standardState": "Solid",
        "density": "10.49",
        "meltingPoint": "961.78",
        "electronicConfiguration": "[Kr] 4d¹⁰ 5s¹",
        "summary": "A soft, white, lustrous transition metal."
    },
    {
        "name": "Cadmium",
        "symbol": "Cd",
        "atomicNumber": 48,
        "atomicMass": "112.41",
        "groupBlock": "Post-transition metal",
        "period": 5,
        "standardState": "Solid",
        "density": "8.65",
        "meltingPoint": "321.07",
        "electronicConfiguration": "[Kr] 4d¹⁰ 5s²",
        "summary": "A soft, bluish-white metal."
    },
    {
        "name": "Indium",
        "symbol": "In",
        "atomicNumber": 49,
        "atomicMass": "114.82",
        "groupBlock": "Post-transition metal",
        "period": 5,
        "standardState": "Solid",
        "density": "7.31",
        "meltingPoint": "156.6",
        "electronicConfiguration": "[Kr] 4d¹⁰ 5s² 5p¹",
        "summary": "A soft, malleable metal."
    },
    {
        "name": "Tin",
        "symbol": "Sn",
        "atomicNumber": 50,
        "atomicMass": "118.71",
        "groupBlock": "Post-transition metal",
        "period": 5,
        "standardState": "Solid",
        "density": "7.287",
        "meltingPoint": "231.93",
        "electronicConfiguration": "[Kr] 4d¹⁰ 5s² 5p²",
        "summary": "A soft, silvery-white metal."
    },
    {
        "name": "Antimony",
        "symbol": "Sb",
        "atomicNumber": 51,
        "atomicMass": "121.76",
        "groupBlock": "Metalloid",
        "period": 5,
        "standardState": "Solid",
        "density": "6.685",
        "meltingPoint": "630.63",
        "electronicConfiguration": "[Kr] 4d¹⁰ 5s² 5p³",
        "summary": "A lustrous gray metalloid."
    },
    {
        "name": "Tellurium",
        "symbol": "Te",
        "atomicNumber": 52,
        "atomicMass": "127.60",
        "groupBlock": "Metalloid",
        "period": 5,
        "standardState": "Solid",
        "density": "6.232",
        "meltingPoint": "449.51",
        "electronicConfiguration": "[Kr] 4d¹⁰ 5s² 5p⁴",
        "summary": "A brittle, mildly toxic, rare, silver-white metalloid."
    },
    {
        "name": "Iodine",
        "symbol": "I",
        "atomicNumber": 53,
        "atomicMass": "126.90",
        "groupBlock": "Halogen",
        "period": 5,
        "standardState": "Solid",
        "density": "4.93",
        "meltingPoint": "113.7",
        "electronicConfiguration": "[Kr] 4d¹⁰ 5s² 5p⁵",
        "summary": "A purple-black, lustrous solid."
    },
    {
        "name": "Xenon",
        "symbol": "Xe",
        "atomicNumber": 54,
        "atomicMass": "131.29",
        "groupBlock": "Noble gas",
        "period": 5,
        "standardState": "Gas",
        "density": "5.894",
        "meltingPoint": "-111.8",
        "electronicConfiguration": "[Kr] 4d¹⁰ 5s² 5p⁶",
        "summary": "A colorless, dense, odorless noble gas."
    },
    {
        "name": "Cesium",
        "symbol": "Cs",
        "atomicNumber": 55,
        "atomicMass": "132.91",
        "groupBlock": "Alkali metal",
        "period": 6,
        "standardState": "Solid",
        "density": "1.93",
        "meltingPoint": "28.44",
        "electronicConfiguration": "[Xe] 6s¹",
        "summary": "A soft, gold-colored, highly reactive metal."
    },
    {
        "name": "Barium",
        "symbol": "Ba",
        "atomicNumber": 56,
        "atomicMass": "137.33",
        "groupBlock": "Alkaline earth metal",
        "period": 6,
        "standardState": "Solid",
        "density": "3.62",
        "meltingPoint": "727",
        "electronicConfiguration": "[Xe] 6s²",
        "summary": "A soft, silvery alkaline earth metal."
    },
    {
        "name": "Lanthanum",
        "symbol": "La",
        "atomicNumber": 57,
        "atomicMass": "138.91",
        "groupBlock": "Lanthanide",
        "period": 6,
        "standardState": "Solid",
        "density": "6.15",
        "meltingPoint": "920",
        "electronicConfiguration": "[Xe] 5d¹ 6s²",
        "summary": "A soft, ductile, silvery-white metal."
    },
    {
        "name": "Cerium",
        "symbol": "Ce",
        "atomicNumber": 58,
        "atomicMass": "140.12",
        "groupBlock": "Lanthanide",
        "period": 6,
        "standardState": "Solid",
        "density": "6.77",
        "meltingPoint": "795",
        "electronicConfiguration": "[Xe] 4f¹ 5d¹ 6s²",
        "summary": "A soft, silvery, ductile metal."
    },
    {
        "name": "Praseodymium",
        "symbol": "Pr",
        "atomicNumber": 59,
        "atomicMass": "140.91",
        "groupBlock": "Lanthanide",
        "period": 6,
        "standardState": "Solid",
        "density": "6.77",
        "meltingPoint": "931",
        "electronicConfiguration": "[Xe] 4f³ 6s²",
        "summary": "A soft, silvery, malleable, and ductile metal."
    },
    {
        "name": "Neodymium",
        "symbol": "Nd",
        "atomicNumber": 60,
        "atomicMass": "144.24",
        "groupBlock": "Lanthanide",
        "period": 6,
        "standardState": "Solid",
        "density": "7.01",
        "meltingPoint": "1021",
        "electronicConfiguration": "[Xe] 4f⁴ 6s²",
        "summary": "A soft, silvery metal used in magnets."
    },
    {
        "name": "Promethium",
        "symbol": "Pm",
        "atomicNumber": 61,
        "atomicMass": "145",
        "groupBlock": "Lanthanide",
        "period": 6,
        "standardState": "Solid",
        "density": "7.26",
        "meltingPoint": "1100",
        "electronicConfiguration": "[Xe] 4f⁵ 6s²",
        "summary": "A radioactive rare earth metal."
    },
    {
        "name": "Samarium",
        "symbol": "Sm",
        "atomicNumber": 62,
        "atomicMass": "150.36",
        "groupBlock": "Lanthanide",
        "period": 6,
        "standardState": "Solid",
        "density": "7.52",
        "meltingPoint": "1072",
        "electronicConfiguration": "[Xe] 4f⁶ 6s²",
        "summary": "A hard, silvery metal used in magnets."
    },
    {
        "name": "Europium",
        "symbol": "Eu",
        "atomicNumber": 63,
        "atomicMass": "151.96",
        "groupBlock": "Lanthanide",
        "period": 6,
        "standardState": "Solid",
        "density": "5.24",
        "meltingPoint": "822",
        "electronicConfiguration": "[Xe] 4f⁷ 6s²",
        "summary": "A moderately hard, silvery metal."
    },
    {
        "name": "Gadolinium",
        "symbol": "Gd",
        "atomicNumber": 64,
        "atomicMass": "157.25",
        "groupBlock": "Lanthanide",
        "period": 6,
        "standardState": "Solid",
        "density": "7.90",
        "meltingPoint": "1312",
        "electronicConfiguration": "[Xe] 4f⁷ 5d¹ 6s²",
        "summary": "A silvery-white, malleable, and ductile rare earth metal."
    },
    {
        "name": "Terbium",
        "symbol": "Tb",
        "atomicNumber": 65,
        "atomicMass": "158.93",
        "groupBlock": "Lanthanide",
        "period": 6,
        "standardState": "Solid",
        "density": "8.23",
        "meltingPoint": "1356",
        "electronicConfiguration": "[Xe] 4f⁹ 6s²",
        "summary": "A silvery-white rare earth metal."
    },
    {
        "name": "Dysprosium",
        "symbol": "Dy",
        "atomicNumber": 66,
        "atomicMass": "162.50",
        "groupBlock": "Lanthanide",
        "period": 6,
        "standardState": "Solid",
        "density": "8.54",
        "meltingPoint": "1412",
        "electronicConfiguration": "[Xe] 4f¹⁰ 6s²",
        "summary": "A rare earth element with a metallic, bright silver luster."
    },
    {
        "name": "Holmium",
        "symbol": "Ho",
        "atomicNumber": 67,
        "atomicMass": "164.93",
        "groupBlock": "Lanthanide",
        "period": 6,
        "standardState": "Solid",
        "density": "8.80",
        "meltingPoint": "1474",
        "electronicConfiguration": "[Xe] 4f¹¹ 6s²",
        "summary": "A relatively soft and malleable silvery-white metal."
    },
    {
        "name": "Erbium",
        "symbol": "Er",
        "atomicNumber": 68,
        "atomicMass": "167.26",
        "groupBlock": "Lanthanide",
        "period": 6,
        "standardState": "Solid",
        "density": "9.07",
        "meltingPoint": "1529",
        "electronicConfiguration": "[Xe] 4f¹² 6s²",
        "summary": "A silvery-white solid metal when artificially isolated."
    },
    {
        "name": "Thulium",
        "symbol": "Tm",
        "atomicNumber": 69,
        "atomicMass": "168.93",
        "groupBlock": "Lanthanide",
        "period": 6,
        "standardState": "Solid",
        "density": "9.32",
        "meltingPoint": "1545",
        "electronicConfiguration": "[Xe] 4f¹³ 6s²",
        "summary": "A bright, silvery metal, the least abundant lanthanide."
    },
    {
        "name": "Ytterbium",
        "symbol": "Yb",
        "atomicNumber": 70,
        "atomicMass": "173.05",
        "groupBlock": "Lanthanide",
        "period": 6,
        "standardState": "Solid",
        "density": "6.90",
        "meltingPoint": "824",
        "electronicConfiguration": "[Xe] 4f¹⁴ 6s²",
        "summary": "A soft, malleable, ductile, and highly reactive metal."
    },
    {
        "name": "Lutetium",
        "symbol": "Lu",
        "atomicNumber": 71,
        "atomicMass": "174.97",
        "groupBlock": "Lanthanide",
        "period": 6,
        "standardState": "Solid",
        "density": "9.84",
        "meltingPoint": "1663",
        "electronicConfiguration": "[Xe] 4f¹⁴ 5d¹ 6s²",
        "summary": "A silvery-white metal, the last element in the lanthanide series."
    },
    {
        "name": "Hafnium",
        "symbol": "Hf",
        "atomicNumber": 72,
        "atomicMass": "178.49",
        "groupBlock": "Transition metal",
        "period": 6,
        "standardState": "Solid",
        "density": "13.31",
        "meltingPoint": "2233",
        "electronicConfiguration": "[Xe] 4f¹⁴ 5d² 6s²",
        "summary": "A lustrous, silvery gray, tetravalent transition metal."
    },
    {
        "name": "Tantalum",
        "symbol": "Ta",
        "atomicNumber": 73,
        "atomicMass": "180.95",
        "groupBlock": "Transition metal",
        "period": 6,
        "standardState": "Solid",
        "density": "16.69",
        "meltingPoint": "3017",
        "electronicConfiguration": "[Xe] 4f¹⁴ 5d³ 6s²",
        "summary": "A rare, hard, blue-gray, lustrous transition metal."
    },
    {
        "name": "Tungsten",
        "symbol": "W",
        "atomicNumber": 74,
        "atomicMass": "183.84",
        "groupBlock": "Transition metal",
        "period": 6,
        "standardState": "Solid",
        "density": "19.25",
        "meltingPoint": "3422",
        "electronicConfiguration": "[Xe] 4f¹⁴ 5d⁴ 6s²",
        "summary": "A hard, rare metal, known for its high melting point."
    },
    {
        "name": "Rhenium",
        "symbol": "Re",
        "atomicNumber": 75,
        "atomicMass": "186.21",
        "groupBlock": "Transition metal",
        "period": 6,
        "standardState": "Solid",
        "density": "21.02",
        "meltingPoint": "3186",
        "electronicConfiguration": "[Xe] 4f¹⁴ 5d⁵ 6s²",
        "summary": "A silvery-white, heavy, third-row transition metal."
    },
    {
        "name": "Osmium",
        "symbol": "Os",
        "atomicNumber": 76,
        "atomicMass": "190.23",
        "groupBlock": "Transition metal",
        "period": 6,
        "standardState": "Solid",
        "density": "22.59",
        "meltingPoint": "3033",
        "electronicConfiguration": "[Xe] 4f¹⁴ 5d⁶ 6s²",
        "summary": "A hard, brittle, bluish-white transition metal."
    },
    {
        "name": "Iridium",
        "symbol": "Ir",
        "atomicNumber": 77,
        "atomicMass": "192.22",
        "groupBlock": "Transition metal",
        "period": 6,
        "standardState": "Solid",
        "density": "22.56",
        "meltingPoint": "2466",
        "electronicConfiguration": "[Xe] 4f¹⁴ 5d⁷ 6s²",
        "summary": "A very hard, brittle, silvery-white transition metal."
    },
    {
        "name": "Platinum",
        "symbol": "Pt",
        "atomicNumber": 78,
        "atomicMass": "195.08",
        "groupBlock": "Transition metal",
        "period": 6,
        "standardState": "Solid",
        "density": "21.45",
        "meltingPoint": "1768.3",
        "electronicConfiguration": "[Xe] 4f¹⁴ 5d⁹ 6s¹",
        "summary": "A dense, malleable, highly unreactive, precious, silverish-white metal."
    },
    {
        "name": "Gold",
        "symbol": "Au",
        "atomicNumber": 79,
        "atomicMass": "196.97",
        "groupBlock": "Transition metal",
        "period": 6,
        "standardState": "Solid",
        "density": "19.32",
        "meltingPoint": "1064.18",
        "electronicConfiguration": "[Xe] 4f¹⁴ 5d¹⁰ 6s¹",
        "summary": "A bright, slightly reddish yellow, dense, soft, malleable, and ductile metal."
    },
    {
        "name": "Mercury",
        "symbol": "Hg",
        "atomicNumber": 80,
        "atomicMass": "200.59",
        "groupBlock": "Post-transition metal",
        "period": 6,
        "standardState": "Liquid",
        "density": "13.534",
        "meltingPoint": "-38.83",
        "electronicConfiguration": "[Xe] 4f¹⁴ 5d¹⁰ 6s²",
        "summary": "A heavy, silvery d-block element, the only metallic element that is liquid at standard conditions."
    },
    {
        "name": "Thallium",
        "symbol": "Tl",
        "atomicNumber": 81,
        "atomicMass": "204.38",
        "groupBlock": "Post-transition metal",
        "period": 6,
        "standardState": "Solid",
        "density": "11.85",
        "meltingPoint": "304",
        "electronicConfiguration": "[Xe] 4f¹⁴ 5d¹⁰ 6s² 6p¹",
        "summary": "A soft gray post-transition metal is not found free in nature."
    },
    {
        "name": "Lead",
        "symbol": "Pb",
        "atomicNumber": 82,
        "atomicMass": "207.2",
        "groupBlock": "Post-transition metal",
        "period": 6,
        "standardState": "Solid",
        "density": "11.34",
        "meltingPoint": "327.46",
        "electronicConfiguration": "[Xe] 4f¹⁴ 5d¹⁰ 6s² 6p²",
        "summary": "A heavy metal that is denser than most common materials."
    },
    {
        "name": "Bismuth",
        "symbol": "Bi",
        "atomicNumber": 83,
        "atomicMass": "208.98",
        "groupBlock": "Post-transition metal",
        "period": 6,
        "standardState": "Solid",
        "density": "9.78",
        "meltingPoint": "271.4",
        "electronicConfiguration": "[Xe] 4f¹⁴ 5d¹⁰ 6s² 6p³",
        "summary": "A brittle metal with a silvery white color when freshly produced."
    },
    {
        "name": "Polonium",
        "symbol": "Po",
        "atomicNumber": 84,
        "atomicMass": "209",
        "groupBlock": "Post-transition metal",
        "period": 6,
        "standardState": "Solid",
        "density": "9.196",
        "meltingPoint": "254",
        "electronicConfiguration": "[Xe] 4f¹⁴ 5d¹⁰ 6s² 6p⁴",
        "summary": "A rare and highly radioactive metal with no stable isotopes."
    },
    {
        "name": "Astatine",
        "symbol": "At",
        "atomicNumber": 85,
        "atomicMass": "210",
        "groupBlock": "Halogen",
        "period": 6,
        "standardState": "Solid",
        "density": "7",
        "meltingPoint": "302",
        "electronicConfiguration": "[Xe] 4f¹⁴ 5d¹⁰ 6s² 6p⁵",
        "summary": "A rare, radioactive element and the rarest naturally occurring halogen."
    },
    {
        "name": "Radon",
        "symbol": "Rn",
        "atomicNumber": 86,
        "atomicMass": "222",
        "groupBlock": "Noble gas",
        "period": 6,
        "standardState": "Gas",
        "density": "9.73",
        "meltingPoint": "-71",
        "electronicConfiguration": "[Xe] 4f¹⁴ 5d¹⁰ 6s² 6p⁶",
        "summary": "A radioactive, colorless, odorless, tasteless noble gas."
    }
]